s 0.029290548 _1_ RTR  --- 0 message 32 [0 0 0 0] ------- [1:255 -1:255 32 0] 
s 0.029365548 _1_ MAC  --- 0 message 90 [0 ffffffff 1 800] ------- [1:255 -1:255 32 0] 
r 0.030085562 _0_ MAC  --- 0 message 32 [0 ffffffff 1 800] ------- [1:255 -1:255 32 0] 
r 0.030110562 _0_ RTR  --- 0 message 32 [0 ffffffff 1 800] ------- [1:255 -1:255 32 0] 
s 1.119926192 _0_ RTR  --- 1 message 32 [0 0 0 0] ------- [0:255 -1:255 32 0] 
s 1.120361192 _0_ MAC  --- 1 message 90 [0 ffffffff 0 800] ------- [0:255 -1:255 32 0] 
r 1.121081207 _1_ MAC  --- 1 message 32 [0 ffffffff 0 800] ------- [0:255 -1:255 32 0] 
r 1.121106207 _1_ RTR  --- 1 message 32 [0 ffffffff 0 800] ------- [0:255 -1:255 32 0] 
M 3.00000 1 (8.00, 5.00, 0.00), (50.00, 40.00), 25.00
M 3.00000 0 (5.00, 2.00, 0.00), (48.00, 38.00), 5.00
s 3.000000000 _0_ AGT  --- 2 tcp 40 [0 0 0 0] ------- [0:0 1:0 32 0] [0 0] 0 0
r 3.000000000 _0_ RTR  --- 2 tcp 40 [0 0 0 0] ------- [0:0 1:0 32 0] [0 0] 0 0
s 3.000000000 _0_ RTR  --- 2 tcp 60 [0 0 0 0] ------- [0:0 1:0 32 1] [0 0] 0 0
s 3.000295000 _0_ MAC  --- 0 ARP 86 [0 ffffffff 0 806] ------- [REQUEST 0/0 0/1]
r 3.000983014 _1_ MAC  --- 0 ARP 28 [0 ffffffff 0 806] ------- [REQUEST 0/0 0/1]
s 3.001578014 _1_ MAC  --- 0 RTS 44 [52e 0 1 0] 
r 3.001930028 _0_ MAC  --- 0 RTS 44 [52e 0 1 0] 
s 3.001940028 _0_ MAC  --- 0 CTS 38 [3f4 1 0 0] 
r 3.002244043 _1_ MAC  --- 0 CTS 38 [3f4 1 0 0] 
s 3.002254043 _1_ MAC  --- 0 ARP 86 [13a 0 1 806] ------- [REPLY 1/1 0/0]
r 3.002942057 _0_ MAC  --- 0 ARP 28 [13a 0 1 806] ------- [REPLY 1/1 0/0]
s 3.002952057 _0_ MAC  --- 0 ACK 38 [0 1 0 0] 
r 3.003256071 _1_ MAC  --- 0 ACK 38 [0 1 0 0] 
s 3.003466057 _0_ MAC  --- 0 RTS 44 [62e 1 0 0] 
r 3.003818071 _1_ MAC  --- 0 RTS 44 [62e 1 0 0] 
s 3.003828071 _1_ MAC  --- 0 CTS 38 [4f4 0 0 0] 
r 3.004132086 _0_ MAC  --- 0 CTS 38 [4f4 0 0 0] 
s 3.004142086 _0_ MAC  --- 2 tcp 118 [13a 1 0 800] ------- [0:0 1:0 32 1] [0 0] 0 0
r 3.005086100 _1_ MAC  --- 2 tcp 60 [13a 1 0 800] ------- [0:0 1:0 32 1] [0 0] 1 0
s 3.005096100 _1_ MAC  --- 0 ACK 38 [0 0 0 0] 
r 3.005111100 _1_ AGT  --- 2 tcp 60 [13a 1 0 800] ------- [0:0 1:0 32 1] [0 0] 1 0
s 3.005111100 _1_ AGT  --- 3 ack 40 [0 0 0 0] ------- [1:0 0:0 32 0] [0 0] 0 0
r 3.005111100 _1_ RTR  --- 3 ack 40 [0 0 0 0] ------- [1:0 0:0 32 0] [0 0] 0 0
s 3.005111100 _1_ RTR  --- 3 ack 60 [0 0 0 0] ------- [1:0 0:0 32 0] [0 0] 0 0
r 3.005400115 _0_ MAC  --- 0 ACK 38 [0 0 0 0] 
s 3.005650100 _1_ MAC  --- 0 RTS 44 [62e 0 1 0] 
r 3.006002115 _0_ MAC  --- 0 RTS 44 [62e 0 1 0] 
s 3.006012115 _0_ MAC  --- 0 CTS 38 [4f4 1 0 0] 
r 3.006316129 _1_ MAC  --- 0 CTS 38 [4f4 1 0 0] 
s 3.006326129 _1_ MAC  --- 3 ack 118 [13a 0 1 800] ------- [1:0 0:0 32 0] [0 0] 0 0
r 3.007270144 _0_ MAC  --- 3 ack 60 [13a 0 1 800] ------- [1:0 0:0 32 0] [0 0] 1 0
s 3.007280144 _0_ MAC  --- 0 ACK 38 [0 1 0 0] 
r 3.007295144 _0_ AGT  --- 3 ack 60 [13a 0 1 800] ------- [1:0 0:0 32 0] [0 0] 1 0
s 3.007295144 _0_ AGT  --- 4 tcp 1040 [0 0 0 0] ------- [0:0 1:0 32 0] [1 0] 0 0
r 3.007295144 _0_ RTR  --- 4 tcp 1040 [0 0 0 0] ------- [0:0 1:0 32 0] [1 0] 0 0
s 3.007295144 _0_ RTR  --- 4 tcp 1060 [0 0 0 0] ------- [0:0 1:0 32 1] [1 0] 0 0
s 3.007295144 _0_ AGT  --- 5 tcp 1040 [0 0 0 0] ------- [0:0 1:0 32 0] [2 0] 0 0
r 3.007295144 _0_ RTR  --- 5 tcp 1040 [0 0 0 0] ------- [0:0 1:0 32 0] [2 0] 0 0
s 3.007295144 _0_ RTR  --- 5 tcp 1060 [0 0 0 0] ------- [0:0 1:0 32 1] [2 0] 0 0
r 3.007584158 _1_ MAC  --- 0 ACK 38 [0 1 0 0] 
s 3.007674144 _0_ MAC  --- 0 RTS 44 [256e 1 0 0] 
r 3.008026158 _1_ MAC  --- 0 RTS 44 [256e 1 0 0] 
s 3.008036158 _1_ MAC  --- 0 CTS 38 [2434 0 0 0] 
r 3.008340173 _0_ MAC  --- 0 CTS 38 [2434 0 0 0] 
s 3.008350173 _0_ MAC  --- 4 tcp 1118 [13a 1 0 800] ------- [0:0 1:0 32 1] [1 0] 0 0
r 3.017294188 _1_ MAC  --- 4 tcp 1060 [13a 1 0 800] ------- [0:0 1:0 32 1] [1 0] 1 0
s 3.017304188 _1_ MAC  --- 0 ACK 38 [0 0 0 0] 
r 3.017319188 _1_ AGT  --- 4 tcp 1060 [13a 1 0 800] ------- [0:0 1:0 32 1] [1 0] 1 0
s 3.017319188 _1_ AGT  --- 6 ack 40 [0 0 0 0] ------- [1:0 0:0 32 0] [1 0] 0 0
r 3.017319188 _1_ RTR  --- 6 ack 40 [0 0 0 0] ------- [1:0 0:0 32 0] [1 0] 0 0
s 3.017319188 _1_ RTR  --- 6 ack 60 [0 0 0 0] ------- [1:0 0:0 32 0] [1 0] 0 0
r 3.017608203 _0_ MAC  --- 0 ACK 38 [0 0 0 0] 
s 3.017778188 _1_ MAC  --- 0 RTS 44 [62e 0 1 0] 
r 3.018130203 _0_ MAC  --- 0 RTS 44 [62e 0 1 0] 
s 3.018140203 _0_ MAC  --- 0 CTS 38 [4f4 1 0 0] 
r 3.018444218 _1_ MAC  --- 0 CTS 38 [4f4 1 0 0] 
s 3.018454218 _1_ MAC  --- 6 ack 118 [13a 0 1 800] ------- [1:0 0:0 32 0] [1 0] 0 0
r 3.019398234 _0_ MAC  --- 6 ack 60 [13a 0 1 800] ------- [1:0 0:0 32 0] [1 0] 1 0
s 3.019408234 _0_ MAC  --- 0 ACK 38 [0 1 0 0] 
r 3.019423234 _0_ AGT  --- 6 ack 60 [13a 0 1 800] ------- [1:0 0:0 32 0] [1 0] 1 0
s 3.019423234 _0_ AGT  --- 7 tcp 1040 [0 0 0 0] ------- [0:0 1:0 32 0] [3 0] 0 0
r 3.019423234 _0_ RTR  --- 7 tcp 1040 [0 0 0 0] ------- [0:0 1:0 32 0] [3 0] 0 0
s 3.019423234 _0_ RTR  --- 7 tcp 1060 [0 0 0 0] ------- [0:0 1:0 32 1] [3 0] 0 0
s 3.019423234 _0_ AGT  --- 8 tcp 1040 [0 0 0 0] ------- [0:0 1:0 32 0] [4 0] 0 0
r 3.019423234 _0_ RTR  --- 8 tcp 1040 [0 0 0 0] ------- [0:0 1:0 32 0] [4 0] 0 0
s 3.019423234 _0_ RTR  --- 8 tcp 1060 [0 0 0 0] ------- [0:0 1:0 32 1] [4 0] 0 0
r 3.019712249 _1_ MAC  --- 0 ACK 38 [0 1 0 0] 
s 3.020122234 _0_ MAC  --- 0 RTS 44 [256e 1 0 0] 
r 3.020474249 _1_ MAC  --- 0 RTS 44 [256e 1 0 0] 
s 3.020484249 _1_ MAC  --- 0 CTS 38 [2434 0 0 0] 
r 3.020788265 _0_ MAC  --- 0 CTS 38 [2434 0 0 0] 
s 3.020798265 _0_ MAC  --- 5 tcp 1118 [13a 1 0 800] ------- [0:0 1:0 32 1] [2 0] 0 0
r 3.029742280 _1_ MAC  --- 5 tcp 1060 [13a 1 0 800] ------- [0:0 1:0 32 1] [2 0] 1 0
s 3.029752280 _1_ MAC  --- 0 ACK 38 [0 0 0 0] 
r 3.029767280 _1_ AGT  --- 5 tcp 1060 [13a 1 0 800] ------- [0:0 1:0 32 1] [2 0] 1 0
s 3.029767280 _1_ AGT  --- 9 ack 40 [0 0 0 0] ------- [1:0 0:0 32 0] [2 0] 0 0
r 3.029767280 _1_ RTR  --- 9 ack 40 [0 0 0 0] ------- [1:0 0:0 32 0] [2 0] 0 0
s 3.029767280 _1_ RTR  --- 9 ack 60 [0 0 0 0] ------- [1:0 0:0 32 0] [2 0] 0 0
r 3.030056296 _0_ MAC  --- 0 ACK 38 [0 0 0 0] 
s 3.030306296 _0_ MAC  --- 0 RTS 44 [256e 1 0 0] 
r 3.030658313 _1_ MAC  --- 0 RTS 44 [256e 1 0 0] 
s 3.030668313 _1_ MAC  --- 0 CTS 38 [2434 0 0 0] 
r 3.030972329 _0_ MAC  --- 0 CTS 38 [2434 0 0 0] 
s 3.030982329 _0_ MAC  --- 7 tcp 1118 [13a 1 0 800] ------- [0:0 1:0 32 1] [3 0] 0 0
r 3.039926345 _1_ MAC  --- 7 tcp 1060 [13a 1 0 800] ------- [0:0 1:0 32 1] [3 0] 1 0
s 3.039936345 _1_ MAC  --- 0 ACK 38 [0 0 0 0] 
r 3.039951345 _1_ AGT  --- 7 tcp 1060 [13a 1 0 800] ------- [0:0 1:0 32 1] [3 0] 1 0
s 3.039951345 _1_ AGT  --- 10 ack 40 [0 0 0 0] ------- [1:0 0:0 32 0] [3 0] 0 0
r 3.039951345 _1_ RTR  --- 10 ack 40 [0 0 0 0] ------- [1:0 0:0 32 0] [3 0] 0 0
s 3.039951345 _1_ RTR  --- 10 ack 60 [0 0 0 0] ------- [1:0 0:0 32 0] [3 0] 0 0
r 3.040240362 _0_ MAC  --- 0 ACK 38 [0 0 0 0] 
s 3.040410345 _1_ MAC  --- 0 RTS 44 [62e 0 1 0] 
r 3.040762362 _0_ MAC  --- 0 RTS 44 [62e 0 1 0] 
s 3.040772362 _0_ MAC  --- 0 CTS 38 [4f4 1 0 0] 
r 3.041076379 _1_ MAC  --- 0 CTS 38 [4f4 1 0 0] 
s 3.041086379 _1_ MAC  --- 9 ack 118 [13a 0 1 800] ------- [1:0 0:0 32 0] [2 0] 0 0
r 3.042030396 _0_ MAC  --- 9 ack 60 [13a 0 1 800] ------- [1:0 0:0 32 0] [2 0] 1 0
s 3.042040396 _0_ MAC  --- 0 ACK 38 [0 1 0 0] 
r 3.042055396 _0_ AGT  --- 9 ack 60 [13a 0 1 800] ------- [1:0 0:0 32 0] [2 0] 1 0
s 3.042055396 _0_ AGT  --- 11 tcp 1040 [0 0 0 0] ------- [0:0 1:0 32 0] [5 0] 0 0
r 3.042055396 _0_ RTR  --- 11 tcp 1040 [0 0 0 0] ------- [0:0 1:0 32 0] [5 0] 0 0
s 3.042055396 _0_ RTR  --- 11 tcp 1060 [0 0 0 0] ------- [0:0 1:0 32 1] [5 0] 0 0
s 3.042055396 _0_ AGT  --- 12 tcp 1040 [0 0 0 0] ------- [0:0 1:0 32 0] [6 0] 0 0
r 3.042055396 _0_ RTR  --- 12 tcp 1040 [0 0 0 0] ------- [0:0 1:0 32 0] [6 0] 0 0
s 3.042055396 _0_ RTR  --- 12 tcp 1060 [0 0 0 0] ------- [0:0 1:0 32 1] [6 0] 0 0
r 3.042344412 _1_ MAC  --- 0 ACK 38 [0 1 0 0] 
s 3.042414412 _1_ MAC  --- 0 RTS 44 [62e 0 1 0] 
r 3.042766429 _0_ MAC  --- 0 RTS 44 [62e 0 1 0] 
s 3.042776429 _0_ MAC  --- 0 CTS 38 [4f4 1 0 0] 
r 3.043080446 _1_ MAC  --- 0 CTS 38 [4f4 1 0 0] 
s 3.043090446 _1_ MAC  --- 10 ack 118 [13a 0 1 800] ------- [1:0 0:0 32 0] [3 0] 0 0
r 3.044034463 _0_ MAC  --- 10 ack 60 [13a 0 1 800] ------- [1:0 0:0 32 0] [3 0] 1 0
s 3.044044463 _0_ MAC  --- 0 ACK 38 [0 1 0 0] 
r 3.044059463 _0_ AGT  --- 10 ack 60 [13a 0 1 800] ------- [1:0 0:0 32 0] [3 0] 1 0
s 3.044059463 _0_ AGT  --- 13 tcp 1040 [0 0 0 0] ------- [0:0 1:0 32 0] [7 0] 0 0
r 3.044059463 _0_ RTR  --- 13 tcp 1040 [0 0 0 0] ------- [0:0 1:0 32 0] [7 0] 0 0
s 3.044059463 _0_ RTR  --- 13 tcp 1060 [0 0 0 0] ------- [0:0 1:0 32 1] [7 0] 0 0
s 3.044059463 _0_ AGT  --- 14 tcp 1040 [0 0 0 0] ------- [0:0 1:0 32 0] [8 0] 0 0
r 3.044059463 _0_ RTR  --- 14 tcp 1040 [0 0 0 0] ------- [0:0 1:0 32 0] [8 0] 0 0
s 3.044059463 _0_ RTR  --- 14 tcp 1060 [0 0 0 0] ------- [0:0 1:0 32 1] [8 0] 0 0
r 3.044348480 _1_ MAC  --- 0 ACK 38 [0 1 0 0] 
s 3.044478463 _0_ MAC  --- 0 RTS 44 [256e 1 0 0] 
r 3.044830481 _1_ MAC  --- 0 RTS 44 [256e 1 0 0] 
s 3.044840481 _1_ MAC  --- 0 CTS 38 [2434 0 0 0] 
r 3.045144498 _0_ MAC  --- 0 CTS 38 [2434 0 0 0] 
s 3.045154498 _0_ MAC  --- 8 tcp 1118 [13a 1 0 800] ------- [0:0 1:0 32 1] [4 0] 0 0
r 3.054098515 _1_ MAC  --- 8 tcp 1060 [13a 1 0 800] ------- [0:0 1:0 32 1] [4 0] 1 0
s 3.054108515 _1_ MAC  --- 0 ACK 38 [0 0 0 0] 
r 3.054123515 _1_ AGT  --- 8 tcp 1060 [13a 1 0 800] ------- [0:0 1:0 32 1] [4 0] 1 0
s 3.054123515 _1_ AGT  --- 15 ack 40 [0 0 0 0] ------- [1:0 0:0 32 0] [4 0] 0 0
r 3.054123515 _1_ RTR  --- 15 ack 40 [0 0 0 0] ------- [1:0 0:0 32 0] [4 0] 0 0
s 3.054123515 _1_ RTR  --- 15 ack 60 [0 0 0 0] ------- [1:0 0:0 32 0] [4 0] 0 0
r 3.054412533 _0_ MAC  --- 0 ACK 38 [0 0 0 0] 
s 3.054622515 _1_ MAC  --- 0 RTS 44 [62e 0 1 0] 
r 3.054974533 _0_ MAC  --- 0 RTS 44 [62e 0 1 0] 
s 3.054984533 _0_ MAC  --- 0 CTS 38 [4f4 1 0 0] 
r 3.055288550 _1_ MAC  --- 0 CTS 38 [4f4 1 0 0] 
s 3.055298550 _1_ MAC  --- 15 ack 118 [13a 0 1 800] ------- [1:0 0:0 32 0] [4 0] 0 0
r 3.056242568 _0_ MAC  --- 15 ack 60 [13a 0 1 800] ------- [1:0 0:0 32 0] [4 0] 1 0
s 3.056252568 _0_ MAC  --- 0 ACK 38 [0 1 0 0] 
r 3.056267568 _0_ AGT  --- 15 ack 60 [13a 0 1 800] ------- [1:0 0:0 32 0] [4 0] 1 0
s 3.056267568 _0_ AGT  --- 16 tcp 1040 [0 0 0 0] ------- [0:0 1:0 32 0] [9 0] 0 0
r 3.056267568 _0_ RTR  --- 16 tcp 1040 [0 0 0 0] ------- [0:0 1:0 32 0] [9 0] 0 0
s 3.056267568 _0_ RTR  --- 16 tcp 1060 [0 0 0 0] ------- [0:0 1:0 32 1] [9 0] 0 0
s 3.056267568 _0_ AGT  --- 17 tcp 1040 [0 0 0 0] ------- [0:0 1:0 32 0] [10 0] 0 0
r 3.056267568 _0_ RTR  --- 17 tcp 1040 [0 0 0 0] ------- [0:0 1:0 32 0] [10 0] 0 0
s 3.056267568 _0_ RTR  --- 17 tcp 1060 [0 0 0 0] ------- [0:0 1:0 32 1] [10 0] 0 0
r 3.056556586 _1_ MAC  --- 0 ACK 38 [0 1 0 0] 
s 3.056886568 _0_ MAC  --- 0 RTS 44 [256e 1 0 0] 
r 3.057238586 _1_ MAC  --- 0 RTS 44 [256e 1 0 0] 
s 3.057248586 _1_ MAC  --- 0 CTS 38 [2434 0 0 0] 
r 3.057552604 _0_ MAC  --- 0 CTS 38 [2434 0 0 0] 
s 3.057562604 _0_ MAC  --- 11 tcp 1118 [13a 1 0 800] ------- [0:0 1:0 32 1] [5 0] 0 0
r 3.066506622 _1_ MAC  --- 11 tcp 1060 [13a 1 0 800] ------- [0:0 1:0 32 1] [5 0] 1 0
s 3.066516622 _1_ MAC  --- 0 ACK 38 [0 0 0 0] 
r 3.066531622 _1_ AGT  --- 11 tcp 1060 [13a 1 0 800] ------- [0:0 1:0 32 1] [5 0] 1 0
s 3.066531622 _1_ AGT  --- 18 ack 40 [0 0 0 0] ------- [1:0 0:0 32 0] [5 0] 0 0
r 3.066531622 _1_ RTR  --- 18 ack 40 [0 0 0 0] ------- [1:0 0:0 32 0] [5 0] 0 0
s 3.066531622 _1_ RTR  --- 18 ack 60 [0 0 0 0] ------- [1:0 0:0 32 0] [5 0] 0 0
r 3.066820641 _0_ MAC  --- 0 ACK 38 [0 0 0 0] 
s 3.067270641 _0_ MAC  --- 0 RTS 44 [256e 1 0 0] 
r 3.067622659 _1_ MAC  --- 0 RTS 44 [256e 1 0 0] 
s 3.067632659 _1_ MAC  --- 0 CTS 38 [2434 0 0 0] 
r 3.067936678 _0_ MAC  --- 0 CTS 38 [2434 0 0 0] 
s 3.067946678 _0_ MAC  --- 12 tcp 1118 [13a 1 0 800] ------- [0:0 1:0 32 1] [6 0] 0 0
r 3.076890696 _1_ MAC  --- 12 tcp 1060 [13a 1 0 800] ------- [0:0 1:0 32 1] [6 0] 1 0
s 3.076900696 _1_ MAC  --- 0 ACK 38 [0 0 0 0] 
r 3.076915696 _1_ AGT  --- 12 tcp 1060 [13a 1 0 800] ------- [0:0 1:0 32 1] [6 0] 1 0
s 3.076915696 _1_ AGT  --- 19 ack 40 [0 0 0 0] ------- [1:0 0:0 32 0] [6 0] 0 0
r 3.076915696 _1_ RTR  --- 19 ack 40 [0 0 0 0] ------- [1:0 0:0 32 0] [6 0] 0 0
s 3.076915696 _1_ RTR  --- 19 ack 60 [0 0 0 0] ------- [1:0 0:0 32 0] [6 0] 0 0
r 3.077204716 _0_ MAC  --- 0 ACK 38 [0 0 0 0] 
s 3.077434696 _1_ MAC  --- 0 RTS 44 [62e 0 1 0] 
r 3.077786716 _0_ MAC  --- 0 RTS 44 [62e 0 1 0] 
s 3.077796716 _0_ MAC  --- 0 CTS 38 [4f4 1 0 0] 
r 3.078100735 _1_ MAC  --- 0 CTS 38 [4f4 1 0 0] 
s 3.078110735 _1_ MAC  --- 18 ack 118 [13a 0 1 800] ------- [1:0 0:0 32 0] [5 0] 0 0
r 3.079054754 _0_ MAC  --- 18 ack 60 [13a 0 1 800] ------- [1:0 0:0 32 0] [5 0] 1 0
s 3.079064754 _0_ MAC  --- 0 ACK 38 [0 1 0 0] 
r 3.079079754 _0_ AGT  --- 18 ack 60 [13a 0 1 800] ------- [1:0 0:0 32 0] [5 0] 1 0
s 3.079079754 _0_ AGT  --- 20 tcp 1040 [0 0 0 0] ------- [0:0 1:0 32 0] [11 0] 0 0
r 3.079079754 _0_ RTR  --- 20 tcp 1040 [0 0 0 0] ------- [0:0 1:0 32 0] [11 0] 0 0
s 3.079079754 _0_ RTR  --- 20 tcp 1060 [0 0 0 0] ------- [0:0 1:0 32 1] [11 0] 0 0
s 3.079079754 _0_ AGT  --- 21 tcp 1040 [0 0 0 0] ------- [0:0 1:0 32 0] [12 0] 0 0
r 3.079079754 _0_ RTR  --- 21 tcp 1040 [0 0 0 0] ------- [0:0 1:0 32 0] [12 0] 0 0
s 3.079079754 _0_ RTR  --- 21 tcp 1060 [0 0 0 0] ------- [0:0 1:0 32 1] [12 0] 0 0
r 3.079368774 _1_ MAC  --- 0 ACK 38 [0 1 0 0] 
s 3.079778754 _0_ MAC  --- 0 RTS 44 [256e 1 0 0] 
s 3.079778774 _1_ MAC  --- 0 RTS 44 [62e 0 1 0] 
s 3.081564793 _0_ MAC  --- 0 RTS 44 [256e 1 0 0] 
r 3.081916813 _1_ MAC  --- 0 RTS 44 [256e 1 0 0] 
s 3.081926813 _1_ MAC  --- 0 CTS 38 [2434 0 0 0] 
r 3.082230832 _0_ MAC  --- 0 CTS 38 [2434 0 0 0] 
s 3.082240832 _0_ MAC  --- 13 tcp 1118 [13a 1 0 800] ------- [0:0 1:0 32 1] [7 0] 0 0
r 3.091184852 _1_ MAC  --- 13 tcp 1060 [13a 1 0 800] ------- [0:0 1:0 32 1] [7 0] 1 0
s 3.091194852 _1_ MAC  --- 0 ACK 38 [0 0 0 0] 
r 3.091209852 _1_ AGT  --- 13 tcp 1060 [13a 1 0 800] ------- [0:0 1:0 32 1] [7 0] 1 0
s 3.091209852 _1_ AGT  --- 22 ack 40 [0 0 0 0] ------- [1:0 0:0 32 0] [7 0] 0 0
r 3.091209852 _1_ RTR  --- 22 ack 40 [0 0 0 0] ------- [1:0 0:0 32 0] [7 0] 0 0
s 3.091209852 _1_ RTR  --- 22 ack 60 [0 0 0 0] ------- [1:0 0:0 32 0] [7 0] 0 0
r 3.091498872 _0_ MAC  --- 0 ACK 38 [0 0 0 0] 
s 3.091648852 _1_ MAC  --- 0 RTS 44 [62e 0 1 0] 
r 3.092000872 _0_ MAC  --- 0 RTS 44 [62e 0 1 0] 
s 3.092010872 _0_ MAC  --- 0 CTS 38 [4f4 1 0 0] 
r 3.092314893 _1_ MAC  --- 0 CTS 38 [4f4 1 0 0] 
s 3.092324893 _1_ MAC  --- 19 ack 118 [13a 0 1 800] ------- [1:0 0:0 32 0] [6 0] 0 0
r 3.093268913 _0_ MAC  --- 19 ack 60 [13a 0 1 800] ------- [1:0 0:0 32 0] [6 0] 1 0
s 3.093278913 _0_ MAC  --- 0 ACK 38 [0 1 0 0] 
r 3.093293913 _0_ AGT  --- 19 ack 60 [13a 0 1 800] ------- [1:0 0:0 32 0] [6 0] 1 0
s 3.093293913 _0_ AGT  --- 23 tcp 1040 [0 0 0 0] ------- [0:0 1:0 32 0] [13 0] 0 0
r 3.093293913 _0_ RTR  --- 23 tcp 1040 [0 0 0 0] ------- [0:0 1:0 32 0] [13 0] 0 0
s 3.093293913 _0_ RTR  --- 23 tcp 1060 [0 0 0 0] ------- [0:0 1:0 32 1] [13 0] 0 0
s 3.093293913 _0_ AGT  --- 24 tcp 1040 [0 0 0 0] ------- [0:0 1:0 32 0] [14 0] 0 0
r 3.093293913 _0_ RTR  --- 24 tcp 1040 [0 0 0 0] ------- [0:0 1:0 32 0] [14 0] 0 0
s 3.093293913 _0_ RTR  --- 24 tcp 1060 [0 0 0 0] ------- [0:0 1:0 32 1] [14 0] 0 0
r 3.093582933 _1_ MAC  --- 0 ACK 38 [0 1 0 0] 
s 3.093772933 _1_ MAC  --- 0 RTS 44 [62e 0 1 0] 
r 3.094124954 _0_ MAC  --- 0 RTS 44 [62e 0 1 0] 
s 3.094134954 _0_ MAC  --- 0 CTS 38 [4f4 1 0 0] 
r 3.094438974 _1_ MAC  --- 0 CTS 38 [4f4 1 0 0] 
s 3.094448974 _1_ MAC  --- 22 ack 118 [13a 0 1 800] ------- [1:0 0:0 32 0] [7 0] 0 0
r 3.095392994 _0_ MAC  --- 22 ack 60 [13a 0 1 800] ------- [1:0 0:0 32 0] [7 0] 1 0
s 3.095402994 _0_ MAC  --- 0 ACK 38 [0 1 0 0] 
r 3.095417994 _0_ AGT  --- 22 ack 60 [13a 0 1 800] ------- [1:0 0:0 32 0] [7 0] 1 0
s 3.095417994 _0_ AGT  --- 25 tcp 1040 [0 0 0 0] ------- [0:0 1:0 32 0] [15 0] 0 0
r 3.095417994 _0_ RTR  --- 25 tcp 1040 [0 0 0 0] ------- [0:0 1:0 32 0] [15 0] 0 0
s 3.095417994 _0_ RTR  --- 25 tcp 1060 [0 0 0 0] ------- [0:0 1:0 32 1] [15 0] 0 0
s 3.095417994 _0_ AGT  --- 26 tcp 1040 [0 0 0 0] ------- [0:0 1:0 32 0] [16 0] 0 0
r 3.095417994 _0_ RTR  --- 26 tcp 1040 [0 0 0 0] ------- [0:0 1:0 32 0] [16 0] 0 0
s 3.095417994 _0_ RTR  --- 26 tcp 1060 [0 0 0 0] ------- [0:0 1:0 32 1] [16 0] 0 0
r 3.095707015 _1_ MAC  --- 0 ACK 38 [0 1 0 0] 
s 3.095876994 _0_ MAC  --- 0 RTS 44 [256e 1 0 0] 
r 3.096229015 _1_ MAC  --- 0 RTS 44 [256e 1 0 0] 
s 3.096239015 _1_ MAC  --- 0 CTS 38 [2434 0 0 0] 
r 3.096543035 _0_ MAC  --- 0 CTS 38 [2434 0 0 0] 
s 3.096553035 _0_ MAC  --- 14 tcp 1118 [13a 1 0 800] ------- [0:0 1:0 32 1] [8 0] 0 0
r 3.105497056 _1_ MAC  --- 14 tcp 1060 [13a 1 0 800] ------- [0:0 1:0 32 1] [8 0] 1 0
s 3.105507056 _1_ MAC  --- 0 ACK 38 [0 0 0 0] 
r 3.105522056 _1_ AGT  --- 14 tcp 1060 [13a 1 0 800] ------- [0:0 1:0 32 1] [8 0] 1 0
s 3.105522056 _1_ AGT  --- 27 ack 40 [0 0 0 0] ------- [1:0 0:0 32 0] [8 0] 0 0
r 3.105522056 _1_ RTR  --- 27 ack 40 [0 0 0 0] ------- [1:0 0:0 32 0] [8 0] 0 0
s 3.105522056 _1_ RTR  --- 27 ack 60 [0 0 0 0] ------- [1:0 0:0 32 0] [8 0] 0 0
r 3.105811077 _0_ MAC  --- 0 ACK 38 [0 0 0 0] 
s 3.106061077 _0_ MAC  --- 0 RTS 44 [256e 1 0 0] 
r 3.106413098 _1_ MAC  --- 0 RTS 44 [256e 1 0 0] 
s 3.106423098 _1_ MAC  --- 0 CTS 38 [2434 0 0 0] 
r 3.106727120 _0_ MAC  --- 0 CTS 38 [2434 0 0 0] 
s 3.106737120 _0_ MAC  --- 16 tcp 1118 [13a 1 0 800] ------- [0:0 1:0 32 1] [9 0] 0 0
r 3.115681141 _1_ MAC  --- 16 tcp 1060 [13a 1 0 800] ------- [0:0 1:0 32 1] [9 0] 1 0
s 3.115691141 _1_ MAC  --- 0 ACK 38 [0 0 0 0] 
r 3.115706141 _1_ AGT  --- 16 tcp 1060 [13a 1 0 800] ------- [0:0 1:0 32 1] [9 0] 1 0
s 3.115706141 _1_ AGT  --- 28 ack 40 [0 0 0 0] ------- [1:0 0:0 32 0] [9 0] 0 0
r 3.115706141 _1_ RTR  --- 28 ack 40 [0 0 0 0] ------- [1:0 0:0 32 0] [9 0] 0 0
s 3.115706141 _1_ RTR  --- 28 ack 60 [0 0 0 0] ------- [1:0 0:0 32 0] [9 0] 0 0
r 3.115995163 _0_ MAC  --- 0 ACK 38 [0 0 0 0] 
s 3.116125141 _1_ MAC  --- 0 RTS 44 [62e 0 1 0] 
r 3.116477163 _0_ MAC  --- 0 RTS 44 [62e 0 1 0] 
s 3.116487163 _0_ MAC  --- 0 CTS 38 [4f4 1 0 0] 
r 3.116791184 _1_ MAC  --- 0 CTS 38 [4f4 1 0 0] 
s 3.116801184 _1_ MAC  --- 27 ack 118 [13a 0 1 800] ------- [1:0 0:0 32 0] [8 0] 0 0
r 3.117745206 _0_ MAC  --- 27 ack 60 [13a 0 1 800] ------- [1:0 0:0 32 0] [8 0] 1 0
s 3.117755206 _0_ MAC  --- 0 ACK 38 [0 1 0 0] 
r 3.117770206 _0_ AGT  --- 27 ack 60 [13a 0 1 800] ------- [1:0 0:0 32 0] [8 0] 1 0
s 3.117770206 _0_ AGT  --- 29 tcp 1040 [0 0 0 0] ------- [0:0 1:0 32 0] [17 0] 0 0
r 3.117770206 _0_ RTR  --- 29 tcp 1040 [0 0 0 0] ------- [0:0 1:0 32 0] [17 0] 0 0
s 3.117770206 _0_ RTR  --- 29 tcp 1060 [0 0 0 0] ------- [0:0 1:0 32 1] [17 0] 0 0
s 3.117770206 _0_ AGT  --- 30 tcp 1040 [0 0 0 0] ------- [0:0 1:0 32 0] [18 0] 0 0
r 3.117770206 _0_ RTR  --- 30 tcp 1040 [0 0 0 0] ------- [0:0 1:0 32 0] [18 0] 0 0
s 3.117770206 _0_ RTR  --- 30 tcp 1060 [0 0 0 0] ------- [0:0 1:0 32 1] [18 0] 0 0
r 3.118059228 _1_ MAC  --- 0 ACK 38 [0 1 0 0] 
s 3.118129206 _0_ MAC  --- 0 RTS 44 [256e 1 0 0] 
r 3.118481228 _1_ MAC  --- 0 RTS 44 [256e 1 0 0] 
s 3.118491228 _1_ MAC  --- 0 CTS 38 [2434 0 0 0] 
r 3.118795250 _0_ MAC  --- 0 CTS 38 [2434 0 0 0] 
s 3.118805250 _0_ MAC  --- 17 tcp 1118 [13a 1 0 800] ------- [0:0 1:0 32 1] [10 0] 0 0
r 3.127749272 _1_ MAC  --- 17 tcp 1060 [13a 1 0 800] ------- [0:0 1:0 32 1] [10 0] 1 0
s 3.127759272 _1_ MAC  --- 0 ACK 38 [0 0 0 0] 
r 3.127774272 _1_ AGT  --- 17 tcp 1060 [13a 1 0 800] ------- [0:0 1:0 32 1] [10 0] 1 0
s 3.127774272 _1_ AGT  --- 31 ack 40 [0 0 0 0] ------- [1:0 0:0 32 0] [10 0] 0 0
r 3.127774272 _1_ RTR  --- 31 ack 40 [0 0 0 0] ------- [1:0 0:0 32 0] [10 0] 0 0
s 3.127774272 _1_ RTR  --- 31 ack 60 [0 0 0 0] ------- [1:0 0:0 32 0] [10 0] 0 0
r 3.128063295 _0_ MAC  --- 0 ACK 38 [0 0 0 0] 
s 3.128333295 _0_ MAC  --- 0 RTS 44 [256e 1 0 0] 
r 3.128685318 _1_ MAC  --- 0 RTS 44 [256e 1 0 0] 
s 3.128695318 _1_ MAC  --- 0 CTS 38 [2434 0 0 0] 
r 3.128999340 _0_ MAC  --- 0 CTS 38 [2434 0 0 0] 
s 3.129009340 _0_ MAC  --- 20 tcp 1118 [13a 1 0 800] ------- [0:0 1:0 32 1] [11 0] 0 0
r 3.137953363 _1_ MAC  --- 20 tcp 1060 [13a 1 0 800] ------- [0:0 1:0 32 1] [11 0] 1 0
s 3.137963363 _1_ MAC  --- 0 ACK 38 [0 0 0 0] 
r 3.137978363 _1_ AGT  --- 20 tcp 1060 [13a 1 0 800] ------- [0:0 1:0 32 1] [11 0] 1 0
s 3.137978363 _1_ AGT  --- 32 ack 40 [0 0 0 0] ------- [1:0 0:0 32 0] [11 0] 0 0
r 3.137978363 _1_ RTR  --- 32 ack 40 [0 0 0 0] ------- [1:0 0:0 32 0] [11 0] 0 0
s 3.137978363 _1_ RTR  --- 32 ack 60 [0 0 0 0] ------- [1:0 0:0 32 0] [11 0] 0 0
r 3.138267387 _0_ MAC  --- 0 ACK 38 [0 0 0 0] 
s 3.138517387 _0_ MAC  --- 0 RTS 44 [256e 1 0 0] 
r 3.138869410 _1_ MAC  --- 0 RTS 44 [256e 1 0 0] 
s 3.138879410 _1_ MAC  --- 0 CTS 38 [2434 0 0 0] 
r 3.139183433 _0_ MAC  --- 0 CTS 38 [2434 0 0 0] 
s 3.139193433 _0_ MAC  --- 21 tcp 1118 [13a 1 0 800] ------- [0:0 1:0 32 1] [12 0] 0 0
r 3.148137457 _1_ MAC  --- 21 tcp 1060 [13a 1 0 800] ------- [0:0 1:0 32 1] [12 0] 1 0
s 3.148147457 _1_ MAC  --- 0 ACK 38 [0 0 0 0] 
r 3.148162457 _1_ AGT  --- 21 tcp 1060 [13a 1 0 800] ------- [0:0 1:0 32 1] [12 0] 1 0
s 3.148162457 _1_ AGT  --- 33 ack 40 [0 0 0 0] ------- [1:0 0:0 32 0] [12 0] 0 0
r 3.148162457 _1_ RTR  --- 33 ack 40 [0 0 0 0] ------- [1:0 0:0 32 0] [12 0] 0 0
s 3.148162457 _1_ RTR  --- 33 ack 60 [0 0 0 0] ------- [1:0 0:0 32 0] [12 0] 0 0
r 3.148451481 _0_ MAC  --- 0 ACK 38 [0 0 0 0] 
s 3.148581457 _1_ MAC  --- 0 RTS 44 [62e 0 1 0] 
r 3.148933481 _0_ MAC  --- 0 RTS 44 [62e 0 1 0] 
s 3.148943481 _0_ MAC  --- 0 CTS 38 [4f4 1 0 0] 
r 3.149247505 _1_ MAC  --- 0 CTS 38 [4f4 1 0 0] 
s 3.149257505 _1_ MAC  --- 28 ack 118 [13a 0 1 800] ------- [1:0 0:0 32 0] [9 0] 0 0
r 3.150201529 _0_ MAC  --- 28 ack 60 [13a 0 1 800] ------- [1:0 0:0 32 0] [9 0] 1 0
s 3.150211529 _0_ MAC  --- 0 ACK 38 [0 1 0 0] 
r 3.150226529 _0_ AGT  --- 28 ack 60 [13a 0 1 800] ------- [1:0 0:0 32 0] [9 0] 1 0
s 3.150226529 _0_ AGT  --- 34 tcp 1040 [0 0 0 0] ------- [0:0 1:0 32 0] [19 0] 0 0
r 3.150226529 _0_ RTR  --- 34 tcp 1040 [0 0 0 0] ------- [0:0 1:0 32 0] [19 0] 0 0
s 3.150226529 _0_ RTR  --- 34 tcp 1060 [0 0 0 0] ------- [0:0 1:0 32 1] [19 0] 0 0
s 3.150226529 _0_ AGT  --- 35 tcp 1040 [0 0 0 0] ------- [0:0 1:0 32 0] [20 0] 0 0
r 3.150226529 _0_ RTR  --- 35 tcp 1040 [0 0 0 0] ------- [0:0 1:0 32 0] [20 0] 0 0
s 3.150226529 _0_ RTR  --- 35 tcp 1060 [0 0 0 0] ------- [0:0 1:0 32 1] [20 0] 0 0
r 3.150515553 _1_ MAC  --- 0 ACK 38 [0 1 0 0] 
s 3.150625553 _1_ MAC  --- 0 RTS 44 [62e 0 1 0] 
r 3.150977577 _0_ MAC  --- 0 RTS 44 [62e 0 1 0] 
s 3.150987577 _0_ MAC  --- 0 CTS 38 [4f4 1 0 0] 
r 3.151291601 _1_ MAC  --- 0 CTS 38 [4f4 1 0 0] 
s 3.151301601 _1_ MAC  --- 31 ack 118 [13a 0 1 800] ------- [1:0 0:0 32 0] [10 0] 0 0
r 3.152245625 _0_ MAC  --- 31 ack 60 [13a 0 1 800] ------- [1:0 0:0 32 0] [10 0] 1 0
s 3.152255625 _0_ MAC  --- 0 ACK 38 [0 1 0 0] 
r 3.152270625 _0_ AGT  --- 31 ack 60 [13a 0 1 800] ------- [1:0 0:0 32 0] [10 0] 1 0
s 3.152270625 _0_ AGT  --- 36 tcp 1040 [0 0 0 0] ------- [0:0 1:0 32 0] [21 0] 0 0
r 3.152270625 _0_ RTR  --- 36 tcp 1040 [0 0 0 0] ------- [0:0 1:0 32 0] [21 0] 0 0
s 3.152270625 _0_ RTR  --- 36 tcp 1060 [0 0 0 0] ------- [0:0 1:0 32 1] [21 0] 0 0
s 3.152270625 _0_ AGT  --- 37 tcp 1040 [0 0 0 0] ------- [0:0 1:0 32 0] [22 0] 0 0
r 3.152270625 _0_ RTR  --- 37 tcp 1040 [0 0 0 0] ------- [0:0 1:0 32 0] [22 0] 0 0
s 3.152270625 _0_ RTR  --- 37 tcp 1060 [0 0 0 0] ------- [0:0 1:0 32 1] [22 0] 0 0
r 3.152559650 _1_ MAC  --- 0 ACK 38 [0 1 0 0] 
s 3.152729650 _1_ MAC  --- 0 RTS 44 [62e 0 1 0] 
r 3.153081674 _0_ MAC  --- 0 RTS 44 [62e 0 1 0] 
s 3.153091674 _0_ MAC  --- 0 CTS 38 [4f4 1 0 0] 
r 3.153395698 _1_ MAC  --- 0 CTS 38 [4f4 1 0 0] 
s 3.153405698 _1_ MAC  --- 32 ack 118 [13a 0 1 800] ------- [1:0 0:0 32 0] [11 0] 0 0
r 3.154349723 _0_ MAC  --- 32 ack 60 [13a 0 1 800] ------- [1:0 0:0 32 0] [11 0] 1 0
s 3.154359723 _0_ MAC  --- 0 ACK 38 [0 1 0 0] 
r 3.154374723 _0_ AGT  --- 32 ack 60 [13a 0 1 800] ------- [1:0 0:0 32 0] [11 0] 1 0
s 3.154374723 _0_ AGT  --- 38 tcp 1040 [0 0 0 0] ------- [0:0 1:0 32 0] [23 0] 0 0
r 3.154374723 _0_ RTR  --- 38 tcp 1040 [0 0 0 0] ------- [0:0 1:0 32 0] [23 0] 0 0
s 3.154374723 _0_ RTR  --- 38 tcp 1060 [0 0 0 0] ------- [0:0 1:0 32 1] [23 0] 0 0
s 3.154374723 _0_ AGT  --- 39 tcp 1040 [0 0 0 0] ------- [0:0 1:0 32 0] [24 0] 0 0
r 3.154374723 _0_ RTR  --- 39 tcp 1040 [0 0 0 0] ------- [0:0 1:0 32 0] [24 0] 0 0
s 3.154374723 _0_ RTR  --- 39 tcp 1060 [0 0 0 0] ------- [0:0 1:0 32 1] [24 0] 0 0
r 3.154663747 _1_ MAC  --- 0 ACK 38 [0 1 0 0] 
s 3.155033723 _0_ MAC  --- 0 RTS 44 [256e 1 0 0] 
r 3.155385747 _1_ MAC  --- 0 RTS 44 [256e 1 0 0] 
s 3.155395747 _1_ MAC  --- 0 CTS 38 [2434 0 0 0] 
r 3.155699772 _0_ MAC  --- 0 CTS 38 [2434 0 0 0] 
s 3.155709772 _0_ MAC  --- 23 tcp 1118 [13a 1 0 800] ------- [0:0 1:0 32 1] [13 0] 0 0
r 3.164653796 _1_ MAC  --- 23 tcp 1060 [13a 1 0 800] ------- [0:0 1:0 32 1] [13 0] 1 0
s 3.164663796 _1_ MAC  --- 0 ACK 38 [0 0 0 0] 
r 3.164678796 _1_ AGT  --- 23 tcp 1060 [13a 1 0 800] ------- [0:0 1:0 32 1] [13 0] 1 0
s 3.164678796 _1_ AGT  --- 40 ack 40 [0 0 0 0] ------- [1:0 0:0 32 0] [13 0] 0 0
r 3.164678796 _1_ RTR  --- 40 ack 40 [0 0 0 0] ------- [1:0 0:0 32 0] [13 0] 0 0
s 3.164678796 _1_ RTR  --- 40 ack 60 [0 0 0 0] ------- [1:0 0:0 32 0] [13 0] 0 0
r 3.164967821 _0_ MAC  --- 0 ACK 38 [0 0 0 0] 
s 3.165037796 _1_ MAC  --- 0 RTS 44 [62e 0 1 0] 
r 3.165389821 _0_ MAC  --- 0 RTS 44 [62e 0 1 0] 
s 3.165399821 _0_ MAC  --- 0 CTS 38 [4f4 1 0 0] 
r 3.165703846 _1_ MAC  --- 0 CTS 38 [4f4 1 0 0] 
s 3.165713846 _1_ MAC  --- 33 ack 118 [13a 0 1 800] ------- [1:0 0:0 32 0] [12 0] 0 0
r 3.166657872 _0_ MAC  --- 33 ack 60 [13a 0 1 800] ------- [1:0 0:0 32 0] [12 0] 1 0
s 3.166667872 _0_ MAC  --- 0 ACK 38 [0 1 0 0] 
r 3.166682872 _0_ AGT  --- 33 ack 60 [13a 0 1 800] ------- [1:0 0:0 32 0] [12 0] 1 0
s 3.166682872 _0_ AGT  --- 41 tcp 1040 [0 0 0 0] ------- [0:0 1:0 32 0] [25 0] 0 0
r 3.166682872 _0_ RTR  --- 41 tcp 1040 [0 0 0 0] ------- [0:0 1:0 32 0] [25 0] 0 0
s 3.166682872 _0_ RTR  --- 41 tcp 1060 [0 0 0 0] ------- [0:0 1:0 32 1] [25 0] 0 0
s 3.166682872 _0_ AGT  --- 42 tcp 1040 [0 0 0 0] ------- [0:0 1:0 32 0] [26 0] 0 0
r 3.166682872 _0_ RTR  --- 42 tcp 1040 [0 0 0 0] ------- [0:0 1:0 32 0] [26 0] 0 0
s 3.166682872 _0_ RTR  --- 42 tcp 1060 [0 0 0 0] ------- [0:0 1:0 32 1] [26 0] 0 0
r 3.166971897 _1_ MAC  --- 0 ACK 38 [0 1 0 0] 
s 3.167301897 _1_ MAC  --- 0 RTS 44 [62e 0 1 0] 
r 3.167653922 _0_ MAC  --- 0 RTS 44 [62e 0 1 0] 
s 3.167663922 _0_ MAC  --- 0 CTS 38 [4f4 1 0 0] 
r 3.167967947 _1_ MAC  --- 0 CTS 38 [4f4 1 0 0] 
s 3.167977947 _1_ MAC  --- 40 ack 118 [13a 0 1 800] ------- [1:0 0:0 32 0] [13 0] 0 0
r 3.168921973 _0_ MAC  --- 40 ack 60 [13a 0 1 800] ------- [1:0 0:0 32 0] [13 0] 1 0
s 3.168931973 _0_ MAC  --- 0 ACK 38 [0 1 0 0] 
r 3.168946973 _0_ AGT  --- 40 ack 60 [13a 0 1 800] ------- [1:0 0:0 32 0] [13 0] 1 0
s 3.168946973 _0_ AGT  --- 43 tcp 1040 [0 0 0 0] ------- [0:0 1:0 32 0] [27 0] 0 0
r 3.168946973 _0_ RTR  --- 43 tcp 1040 [0 0 0 0] ------- [0:0 1:0 32 0] [27 0] 0 0
s 3.168946973 _0_ RTR  --- 43 tcp 1060 [0 0 0 0] ------- [0:0 1:0 32 1] [27 0] 0 0
s 3.168946973 _0_ AGT  --- 44 tcp 1040 [0 0 0 0] ------- [0:0 1:0 32 0] [28 0] 0 0
r 3.168946973 _0_ RTR  --- 44 tcp 1040 [0 0 0 0] ------- [0:0 1:0 32 0] [28 0] 0 0
s 3.168946973 _0_ RTR  --- 44 tcp 1060 [0 0 0 0] ------- [0:0 1:0 32 1] [28 0] 0 0
r 3.169235998 _1_ MAC  --- 0 ACK 38 [0 1 0 0] 
s 3.169485973 _0_ MAC  --- 0 RTS 44 [256e 1 0 0] 
r 3.169837998 _1_ MAC  --- 0 RTS 44 [256e 1 0 0] 
s 3.169847998 _1_ MAC  --- 0 CTS 38 [2434 0 0 0] 
r 3.170152024 _0_ MAC  --- 0 CTS 38 [2434 0 0 0] 
s 3.170162024 _0_ MAC  --- 24 tcp 1118 [13a 1 0 800] ------- [0:0 1:0 32 1] [14 0] 0 0
r 3.179106049 _1_ MAC  --- 24 tcp 1060 [13a 1 0 800] ------- [0:0 1:0 32 1] [14 0] 1 0
s 3.179116049 _1_ MAC  --- 0 ACK 38 [0 0 0 0] 
r 3.179131049 _1_ AGT  --- 24 tcp 1060 [13a 1 0 800] ------- [0:0 1:0 32 1] [14 0] 1 0
s 3.179131049 _1_ AGT  --- 45 ack 40 [0 0 0 0] ------- [1:0 0:0 32 0] [14 0] 0 0
r 3.179131049 _1_ RTR  --- 45 ack 40 [0 0 0 0] ------- [1:0 0:0 32 0] [14 0] 0 0
s 3.179131049 _1_ RTR  --- 45 ack 60 [0 0 0 0] ------- [1:0 0:0 32 0] [14 0] 0 0
r 3.179420075 _0_ MAC  --- 0 ACK 38 [0 0 0 0] 
s 3.179750049 _1_ MAC  --- 0 RTS 44 [62e 0 1 0] 
r 3.180102075 _0_ MAC  --- 0 RTS 44 [62e 0 1 0] 
s 3.180112075 _0_ MAC  --- 0 CTS 38 [4f4 1 0 0] 
r 3.180416101 _1_ MAC  --- 0 CTS 38 [4f4 1 0 0] 
s 3.180426101 _1_ MAC  --- 45 ack 118 [13a 0 1 800] ------- [1:0 0:0 32 0] [14 0] 0 0
r 3.181370127 _0_ MAC  --- 45 ack 60 [13a 0 1 800] ------- [1:0 0:0 32 0] [14 0] 1 0
s 3.181380127 _0_ MAC  --- 0 ACK 38 [0 1 0 0] 
r 3.181395127 _0_ AGT  --- 45 ack 60 [13a 0 1 800] ------- [1:0 0:0 32 0] [14 0] 1 0
s 3.181395127 _0_ AGT  --- 46 tcp 1040 [0 0 0 0] ------- [0:0 1:0 32 0] [29 0] 0 0
r 3.181395127 _0_ RTR  --- 46 tcp 1040 [0 0 0 0] ------- [0:0 1:0 32 0] [29 0] 0 0
s 3.181395127 _0_ RTR  --- 46 tcp 1060 [0 0 0 0] ------- [0:0 1:0 32 1] [29 0] 0 0
s 3.181395127 _0_ AGT  --- 47 tcp 1040 [0 0 0 0] ------- [0:0 1:0 32 0] [30 0] 0 0
r 3.181395127 _0_ RTR  --- 47 tcp 1040 [0 0 0 0] ------- [0:0 1:0 32 0] [30 0] 0 0
s 3.181395127 _0_ RTR  --- 47 tcp 1060 [0 0 0 0] ------- [0:0 1:0 32 1] [30 0] 0 0
r 3.181684154 _1_ MAC  --- 0 ACK 38 [0 1 0 0] 
s 3.181934127 _0_ MAC  --- 0 RTS 44 [256e 1 0 0] 
r 3.182286154 _1_ MAC  --- 0 RTS 44 [256e 1 0 0] 
s 3.182296154 _1_ MAC  --- 0 CTS 38 [2434 0 0 0] 
r 3.182600180 _0_ MAC  --- 0 CTS 38 [2434 0 0 0] 
s 3.182610180 _0_ MAC  --- 25 tcp 1118 [13a 1 0 800] ------- [0:0 1:0 32 1] [15 0] 0 0
r 3.191554206 _1_ MAC  --- 25 tcp 1060 [13a 1 0 800] ------- [0:0 1:0 32 1] [15 0] 1 0
s 3.191564206 _1_ MAC  --- 0 ACK 38 [0 0 0 0] 
r 3.191579206 _1_ AGT  --- 25 tcp 1060 [13a 1 0 800] ------- [0:0 1:0 32 1] [15 0] 1 0
s 3.191579206 _1_ AGT  --- 48 ack 40 [0 0 0 0] ------- [1:0 0:0 32 0] [15 0] 0 0
r 3.191579206 _1_ RTR  --- 48 ack 40 [0 0 0 0] ------- [1:0 0:0 32 0] [15 0] 0 0
s 3.191579206 _1_ RTR  --- 48 ack 60 [0 0 0 0] ------- [1:0 0:0 32 0] [15 0] 0 0
r 3.191868233 _0_ MAC  --- 0 ACK 38 [0 0 0 0] 